  ABINIT 9.7.3
  
 DeprecationWarning: 

     The files file has been deprecated in Abinit9 and will be removed in Abinit10.
     Use the syntax `abinit t01.abi` where t01.abi is an input with pseudopotentials e.g.

            pseudos = "al.psp8, as.psp8"


  Give name for formatted input file: 
/pfs/lustrep2/scratch/project_465000061/magianto/H_pseudo/flow_pseudo/w0/t6/run.abi
  Give name for formatted output file:
/pfs/lustrep2/scratch/project_465000061/magianto/H_pseudo/flow_pseudo/w0/t6/run.abo
  Give root name for generic input files:
/pfs/lustrep2/scratch/project_465000061/magianto/H_pseudo/flow_pseudo/w0/t6/indata/in
  Give root name for generic output files:
/pfs/lustrep2/scratch/project_465000061/magianto/H_pseudo/flow_pseudo/w0/t6/outdata/out
  Give root name for generic temporary files:
/pfs/lustrep2/scratch/project_465000061/magianto/H_pseudo/flow_pseudo/w0/t6/tmpdata/tmp

.Version 9.7.3 of ABINIT 
.(MPI version, prepared for a x86_64_linux_gnu10.3 computer) 

.Copyright (C) 1998-2022 ABINIT group . 
 ABINIT comes with ABSOLUTELY NO WARRANTY.
 It is free software, and you are welcome to redistribute it
 under certain conditions (GNU General Public License,
 see ~abinit/COPYING or http://www.gnu.org/copyleft/gpl.txt).

 ABINIT is a project of the Universite Catholique de Louvain,
 Corning Inc. and other collaborators, see ~abinit/doc/developers/contributors.txt .
 Please read https://docs.abinit.org/theory/acknowledgments for suggested
 acknowledgments of the ABINIT effort.
 For more information, see https://www.abinit.org .

.Starting date : Wed  6 Apr 2022.
- ( at 02h41 )
  

 ++++++++++++++++++++++++++++++++++++++++++++++++++++++++++++++++++++++++++++++

 === Build Information === 
  Version       : 9.7.3
  Build target  : x86_64_linux_gnu10.3
  Build date    : 20220404

 === Compiler Suite === 
  C compiler       : gnu10.3
  C++ compiler     : gnu10.3
  Fortran compiler : gnu10.3
  CFLAGS           : -g -O2 -mtune=native -march=native
  CXXFLAGS         : -g -O2 -mtune=native -march=native
  FCFLAGS          : -g -ffree-line-length-none -fallow-argument-mismatch     -I/opt/cra ...
  FC_LDFLAGS       : 

 === Optimizations === 
  Debug level        : basic
  Optimization level : standard
  Architecture       : amd_epyc

 === Multicore === 
  Parallel build : /opt/cray/pe/mpich/8.1.8/ofi/gnu/9.1
  Parallel I/O   : 
  openMP support : no
  GPU support    : 

 === Connectors / Fallbacks === 
  LINALG flavor  : netlib
  FFT flavor     : fftw3
  HDF5           : yes
  NetCDF         : yes
  NetCDF Fortran : yes
  LibXC          : yes
  Wannier90      : no

 === Experimental features === 
  Exports             : 
  GW double-precision : 

 ++++++++++++++++++++++++++++++++++++++++++++++++++++++++++++++++++++++++++++++


 ++++++++++++++++++++++++++++++++++++++++++++++++++++++++++++++++++++++++++++++
 Default optimizations:
   -O2 -mtune=native -march=native


 Optimizations for 43_ptgroups:
   -O0


 ++++++++++++++++++++++++++++++++++++++++++++++++++++++++++++++++++++++++++++++


 ++++++++++++++++++++++++++++++++++++++++++++++++++++++++++++++++++++++++++++++
 CPP options activated during the build:

                    CC_GNU                   CXX_GNU                    FC_GNU
 
 HAVE_FC_ALLOCATABLE_DT...             HAVE_FC_ASYNC         HAVE_FC_BACKTRACE
 
  HAVE_FC_COMMAND_ARGUMENT      HAVE_FC_COMMAND_LINE        HAVE_FC_CONTIGUOUS
 
           HAVE_FC_CPUTIME              HAVE_FC_EXIT             HAVE_FC_FLUSH
 
             HAVE_FC_GAMMA            HAVE_FC_GETENV   HAVE_FC_IEEE_ARITHMETIC
 
   HAVE_FC_IEEE_EXCEPTIONS          HAVE_FC_INT_QUAD             HAVE_FC_IOMSG
 
     HAVE_FC_ISO_C_BINDING  HAVE_FC_ISO_FORTRAN_2008        HAVE_FC_LONG_LINES
 
        HAVE_FC_MOVE_ALLOC  HAVE_FC_ON_THE_FLY_SHAPE           HAVE_FC_PRIVATE
 
         HAVE_FC_PROTECTED           HAVE_FC_SHIFTLR         HAVE_FC_STREAM_IO
 
            HAVE_FC_SYSTEM                HAVE_FFTW3            HAVE_FFTW3_MPI
 
          HAVE_FORTRAN2003                 HAVE_HDF5        HAVE_LIBPAW_ABINIT
 
      HAVE_LIBTETRA_ABINIT                HAVE_LIBXC        HAVE_LINALG_GEMM3M
 
     HAVE_LINALG_SCALAPACK                  HAVE_MPI                 HAVE_MPI2
 
       HAVE_MPI_IALLGATHER       HAVE_MPI_IALLREDUCE        HAVE_MPI_IALLTOALL
 
       HAVE_MPI_IALLTOALLV           HAVE_MPI_IBCAST         HAVE_MPI_IGATHERV
 
        HAVE_MPI_INTEGER16               HAVE_MPI_IO HAVE_MPI_TYPE_CREATE_S...
 
               HAVE_NETCDF       HAVE_NETCDF_FORTRAN             HAVE_OS_LINUX
 
         HAVE_TIMER_ABINIT                                                      
 ++++++++++++++++++++++++++++++++++++++++++++++++++++++++++++++++++++++++++++++

- input  file    -> /pfs/lustrep2/scratch/project_465000061/magianto/H_pseudo/flow_pseudo/w0/t6/run.abi
- output file    -> /pfs/lustrep2/scratch/project_465000061/magianto/H_pseudo/flow_pseudo/w0/t6/run.abo
- root for input  files -> /pfs/lustrep2/scratch/project_465000061/magianto/H_pseudo/flow_pseudo/w0/t6/indata/in
- root for output files -> /pfs/lustrep2/scratch/project_465000061/magianto/H_pseudo/flow_pseudo/w0/t6/outdata/out

-instrng: 79 lines of input have been read from file /pfs/lustrep2/scratch/project_465000061/magianto/H_pseudo/flow_pseudo/w0/t6/run.abi


 Please give name of formatted atomic psp file (and finish with a newline character)
 For atom type 1, psp file is /pfs/lustrep2/scratch/project_465000061/magianto/H_pseudo/H.psp8
  read the values zionpsp=  1.0 , pspcod=   8 , lmax=   1

 inpspheads: deduce mpsang = 2, n1xccc = 0.

======================================================= 
 invars1m : enter jdtset= 0

 symlatt: the Bravais lattice is cP (primitive cubic)
  xred   is defined in input file
 ingeo: takes atomic coordinates from input array xred

--- !COMMENT
src_file: m_ingeo.F90
src_line: 900
message: |
    The tolerance on symmetries =   1.000E-05 is bigger than 1.0e-8.
    In order to avoid spurious effects, the atomic coordinates have been
    symmetrized before storing them in the dataset internal variable.
    So, do not be surprised by the fact that your input variables (xcart, xred, ...)
    do not correspond exactly to the ones echoed by ABINIT, the latter being used to do the calculations.
    This is not a problem per se.
    Still, in order to avoid this symmetrization (e.g. for specific debugging/development), decrease tolsym to 1.0e-8 or lower,
    or (much preferred) use input primitive vectors that are accurate to better than 1.0e-8.
    This message will only be printed once, even if there are other datasets where tolsym is bigger than 1.0e-8.
...


 symlatt: the Bravais lattice is cP (primitive cubic)

--- !COMMENT
src_file: m_symtk.F90
src_line: 830
message: |
    According to the symmetry finder, the unit cell is
    not primitive, with multiplicity= 2.
    This is allowed, as the input variable chkprim is 0.
...

 invars2: read the value of fband=  1.50000000E+00 from input file.

--- !WARNING
src_file: m_mpinfo.F90
src_line: 2502
message: |
    nkpt*nsppol (14190) is not a multiple of nproc_spkpt (32)
    The k-point parallelisation is inefficient. (Ignore this warning if this is not a GS run)
...


--- !WARNING
src_file: m_mpi_setup.F90
src_line: 808
message: |
    The number of KPT processors, np_spkpt, should be a multiple of nkpt*nsppol.
    However, np_spkpt=32 and nkpt*nsppol=14190
...

 For input ecut=  4.200000E+01 best grid ngfft=      24      24      24
       max ecut=  5.843852E+01

 ==== FFT mesh ====
  FFT mesh divisions ........................    24   24   24
  Augmented FFT divisions ...................    25   25   24
  FFT algorithm .............................   312
  FFT cache size ............................    16
 getmpw: optimal value of mpw= 564

 Symmetries : the unit cell is not primitive

 getdim_nloc : deduce lmnmax  =   5, lnmax  =   3,
                      lmnmaxso=   5, lnmaxso=   3.
memory: analysis of memory needs
================================================================================
 Values of the parameters that define the memory need of the present run
     intxc =       0    ionmov =       0      iscf =       7    lmnmax =       3
     lnmax =       3     mgfft =      24  mpssoang =       2    mqgrid =    3001
     natom =       2  nloc_mem =       1    nspden =       1   nspinor =       1
    nsppol =       1      nsym =      96    n1xccc =       0    ntypat =       1
    occopt =       3   xclevel =       2
-    mband =           4        mffmem =           1         mkmem =         444
       mpw =         564          nfft =       13824          nkpt =       14190
================================================================================
P This job should need less than                      32.677 Mbytes of memory.
  Rough estimation (10% accuracy) of disk space for files :
_ WF disk file :    488.476 Mbytes ; DEN or POT disk file :      0.107 Mbytes.
================================================================================

 Biggest array : cg(disk), with     15.2862 MBytes.
 memana : allocated an array of     15.286 Mbytes, for testing purposes.
 memana: allocated      32.677Mbytes, for testing purposes. 
 The job will continue.
--------------------------------------------------------------------------------
------------- Echo of variables that govern the present computation ------------
--------------------------------------------------------------------------------
-
- outvars: echo of selected default values                                      
-   iomode0 =  0 , fftalg0 =312 , wfoptalg0 =  0
-
- outvars: echo of global parameters not present in the input file              
-  max_nthreads =    0
-
 -outvars: echo values of preprocessed input variables --------
 
 These variables are accessible in NetCDF format (/pfs/lustrep2/scratch/project_465000061/magianto/H_pseudo/flow_pseudo/w0/t6/outdata/out_OUT.nc)

-          iomode           1
            acell      1.0000000000E+00  1.0000000000E+00  1.0000000000E+00 Bohr
              amu      1.00794000E+00
          chkprim           0
      chksymbreak           0
     densfor_pred           6
             ecut      4.20000000E+01 Hartree
-          fftalg         312
           istwfk        2    0    0    0    0    0    0    0    0    0
                         0    0    0    0    0    0    0    0    0    0
                         0    0    0    0    0    0    0    0    0    0
                         0    0    0    0    0    0    0    0    0    0
                         0    0    1    0    0    0    0    0    0    0
                       outvar_i_n : Printing only first  50 k-points.
              ixc          11
              kpt      0.00000000E+00  0.00000000E+00  0.00000000E+00
                       1.19047619E-02  0.00000000E+00  0.00000000E+00
                       2.38095238E-02  0.00000000E+00  0.00000000E+00
                       3.57142857E-02  0.00000000E+00  0.00000000E+00
                       4.76190476E-02  0.00000000E+00  0.00000000E+00
                       5.95238095E-02  0.00000000E+00  0.00000000E+00
                       7.14285714E-02  0.00000000E+00  0.00000000E+00
                       8.33333333E-02  0.00000000E+00  0.00000000E+00
                       9.52380952E-02  0.00000000E+00  0.00000000E+00
                       1.07142857E-01  0.00000000E+00  0.00000000E+00
                       1.19047619E-01  0.00000000E+00  0.00000000E+00
                       1.30952381E-01  0.00000000E+00  0.00000000E+00
                       1.42857143E-01  0.00000000E+00  0.00000000E+00
                       1.54761905E-01  0.00000000E+00  0.00000000E+00
                       1.66666667E-01  0.00000000E+00  0.00000000E+00
                       1.78571429E-01  0.00000000E+00  0.00000000E+00
                       1.90476190E-01  0.00000000E+00  0.00000000E+00
                       2.02380952E-01  0.00000000E+00  0.00000000E+00
                       2.14285714E-01  0.00000000E+00  0.00000000E+00
                       2.26190476E-01  0.00000000E+00  0.00000000E+00
                       2.38095238E-01  0.00000000E+00  0.00000000E+00
                       2.50000000E-01  0.00000000E+00  0.00000000E+00
                       2.61904762E-01  0.00000000E+00  0.00000000E+00
                       2.73809524E-01  0.00000000E+00  0.00000000E+00
                       2.85714286E-01  0.00000000E+00  0.00000000E+00
                       2.97619048E-01  0.00000000E+00  0.00000000E+00
                       3.09523810E-01  0.00000000E+00  0.00000000E+00
                       3.21428571E-01  0.00000000E+00  0.00000000E+00
                       3.33333333E-01  0.00000000E+00  0.00000000E+00
                       3.45238095E-01  0.00000000E+00  0.00000000E+00
                       3.57142857E-01  0.00000000E+00  0.00000000E+00
                       3.69047619E-01  0.00000000E+00  0.00000000E+00
                       3.80952381E-01  0.00000000E+00  0.00000000E+00
                       3.92857143E-01  0.00000000E+00  0.00000000E+00
                       4.04761905E-01  0.00000000E+00  0.00000000E+00
                       4.16666667E-01  0.00000000E+00  0.00000000E+00
                       4.28571429E-01  0.00000000E+00  0.00000000E+00
                       4.40476190E-01  0.00000000E+00  0.00000000E+00
                       4.52380952E-01  0.00000000E+00  0.00000000E+00
                       4.64285714E-01  0.00000000E+00  0.00000000E+00
                       4.76190476E-01  0.00000000E+00  0.00000000E+00
                       4.88095238E-01  0.00000000E+00  0.00000000E+00
                       5.00000000E-01  0.00000000E+00  0.00000000E+00
                       1.19047619E-02  1.19047619E-02  0.00000000E+00
                       2.38095238E-02  1.19047619E-02  0.00000000E+00
                       3.57142857E-02  1.19047619E-02  0.00000000E+00
                       4.76190476E-02  1.19047619E-02  0.00000000E+00
                       5.95238095E-02  1.19047619E-02  0.00000000E+00
                       7.14285714E-02  1.19047619E-02  0.00000000E+00
                       8.33333333E-02  1.19047619E-02  0.00000000E+00
                       outvar_i_n : Printing only first  50 k-points.
         kptrlatt       84    0    0      0   84    0      0    0   84
          kptrlen      2.92917828E+02
P           mkmem         444
            natom           2
            nband           4
            ngfft          24      24      24
             nkpt       14190
-        np_spkpt          32
            nstep         500
             nsym          96
           ntypat           1
              occ      2.000000  0.000000  0.000000  0.000000
                       2.000000  0.000000  0.000000  0.000000
                       2.000000  0.000000  0.000000  0.000000
                       2.000000  0.000000  0.000000  0.000000
                       2.000000  0.000000  0.000000  0.000000
                       2.000000  0.000000  0.000000  0.000000
                       2.000000  0.000000  0.000000  0.000000
                       2.000000  0.000000  0.000000  0.000000
                       2.000000  0.000000  0.000000  0.000000
                       2.000000  0.000000  0.000000  0.000000
                       2.000000  0.000000  0.000000  0.000000
                       2.000000  0.000000  0.000000  0.000000
                       2.000000  0.000000  0.000000  0.000000
                       2.000000  0.000000  0.000000  0.000000
                       2.000000  0.000000  0.000000  0.000000
                       2.000000  0.000000  0.000000  0.000000
                       2.000000  0.000000  0.000000  0.000000
                       2.000000  0.000000  0.000000  0.000000
                       2.000000  0.000000  0.000000  0.000000
                       2.000000  0.000000  0.000000  0.000000
                       2.000000  0.000000  0.000000  0.000000
                       2.000000  0.000000  0.000000  0.000000
                       2.000000  0.000000  0.000000  0.000000
                       2.000000  0.000000  0.000000  0.000000
                       2.000000  0.000000  0.000000  0.000000
                       2.000000  0.000000  0.000000  0.000000
                       2.000000  0.000000  0.000000  0.000000
                       2.000000  0.000000  0.000000  0.000000
                       2.000000  0.000000  0.000000  0.000000
                       2.000000  0.000000  0.000000  0.000000
                       2.000000  0.000000  0.000000  0.000000
                       2.000000  0.000000  0.000000  0.000000
                       2.000000  0.000000  0.000000  0.000000
                       2.000000  0.000000  0.000000  0.000000
                       2.000000  0.000000  0.000000  0.000000
                       2.000000  0.000000  0.000000  0.000000
                       2.000000  0.000000  0.000000  0.000000
                       2.000000  0.000000  0.000000  0.000000
                       2.000000  0.000000  0.000000  0.000000
                       2.000000  0.000000  0.000000  0.000000
                       2.000000  0.000000  0.000000  0.000000
                       2.000000  0.000000  0.000000  0.000000
                       2.000000  0.000000  0.000000  0.000000
                       2.000000  0.000000  0.000000  0.000000
                       2.000000  0.000000  0.000000  0.000000
                       2.000000  0.000000  0.000000  0.000000
                       2.000000  0.000000  0.000000  0.000000
                       2.000000  0.000000  0.000000  0.000000
                       2.000000  0.000000  0.000000  0.000000
                       2.000000  0.000000  0.000000  0.000000
                       prtocc : prtvol=0, do not print more k-points.
           occopt           3
           ortalg          -2
        paral_kgb           1
            prtwf          -1
            rprim      3.4871169978E+00  0.0000000000E+00  0.0000000000E+00
                       0.0000000000E+00  3.4871169978E+00  0.0000000000E+00
                       0.0000000000E+00  0.0000000000E+00  3.4871169978E+00
           symrel      1  0  0   0  1  0   0  0  1       1  0  0   0  1  0   0  0  1
                      -1  0  0   0 -1  0   0  0 -1      -1  0  0   0 -1  0   0  0 -1
                      -1  0  0   0  1  0   0  0 -1      -1  0  0   0  1  0   0  0 -1
                       1  0  0   0 -1  0   0  0  1       1  0  0   0 -1  0   0  0  1
                      -1  0  0   0 -1  0   0  0  1      -1  0  0   0 -1  0   0  0  1
                       1  0  0   0  1  0   0  0 -1       1  0  0   0  1  0   0  0 -1
                       1  0  0   0 -1  0   0  0 -1       1  0  0   0 -1  0   0  0 -1
                      -1  0  0   0  1  0   0  0  1      -1  0  0   0  1  0   0  0  1
                       0  1  0   1  0  0   0  0  1       0  1  0   1  0  0   0  0  1
                       0 -1  0  -1  0  0   0  0 -1       0 -1  0  -1  0  0   0  0 -1
                       0 -1  0   1  0  0   0  0 -1       0 -1  0   1  0  0   0  0 -1
                       0  1  0  -1  0  0   0  0  1       0  1  0  -1  0  0   0  0  1
                       0 -1  0  -1  0  0   0  0  1       0 -1  0  -1  0  0   0  0  1
                       0  1  0   1  0  0   0  0 -1       0  1  0   1  0  0   0  0 -1
                       0  1  0  -1  0  0   0  0 -1       0  1  0  -1  0  0   0  0 -1
                       0 -1  0   1  0  0   0  0  1       0 -1  0   1  0  0   0  0  1
                       0  0  1   1  0  0   0  1  0       0  0  1   1  0  0   0  1  0
                       0  0 -1  -1  0  0   0 -1  0       0  0 -1  -1  0  0   0 -1  0
                       0  0 -1   1  0  0   0 -1  0       0  0 -1   1  0  0   0 -1  0
                       0  0  1  -1  0  0   0  1  0       0  0  1  -1  0  0   0  1  0
                       0  0 -1  -1  0  0   0  1  0       0  0 -1  -1  0  0   0  1  0
                       0  0  1   1  0  0   0 -1  0       0  0  1   1  0  0   0 -1  0
                       0  0  1  -1  0  0   0 -1  0       0  0  1  -1  0  0   0 -1  0
                       0  0 -1   1  0  0   0  1  0       0  0 -1   1  0  0   0  1  0
                       1  0  0   0  0  1   0  1  0       1  0  0   0  0  1   0  1  0
                      -1  0  0   0  0 -1   0 -1  0      -1  0  0   0  0 -1   0 -1  0
                      -1  0  0   0  0  1   0 -1  0      -1  0  0   0  0  1   0 -1  0
                       1  0  0   0  0 -1   0  1  0       1  0  0   0  0 -1   0  1  0
                      -1  0  0   0  0 -1   0  1  0      -1  0  0   0  0 -1   0  1  0
                       1  0  0   0  0  1   0 -1  0       1  0  0   0  0  1   0 -1  0
                       1  0  0   0  0 -1   0 -1  0       1  0  0   0  0 -1   0 -1  0
                      -1  0  0   0  0  1   0  1  0      -1  0  0   0  0  1   0  1  0
                       0  1  0   0  0  1   1  0  0       0  1  0   0  0  1   1  0  0
                       0 -1  0   0  0 -1  -1  0  0       0 -1  0   0  0 -1  -1  0  0
                       0 -1  0   0  0  1  -1  0  0       0 -1  0   0  0  1  -1  0  0
                       0  1  0   0  0 -1   1  0  0       0  1  0   0  0 -1   1  0  0
                       0 -1  0   0  0 -1   1  0  0       0 -1  0   0  0 -1   1  0  0
                       0  1  0   0  0  1  -1  0  0       0  1  0   0  0  1  -1  0  0
                       0  1  0   0  0 -1  -1  0  0       0  1  0   0  0 -1  -1  0  0
                       0 -1  0   0  0  1   1  0  0       0 -1  0   0  0  1   1  0  0
                       0  0  1   0  1  0   1  0  0       0  0  1   0  1  0   1  0  0
                       0  0 -1   0 -1  0  -1  0  0       0  0 -1   0 -1  0  -1  0  0
                       0  0 -1   0  1  0  -1  0  0       0  0 -1   0  1  0  -1  0  0
                       0  0  1   0 -1  0   1  0  0       0  0  1   0 -1  0   1  0  0
                       0  0 -1   0 -1  0   1  0  0       0  0 -1   0 -1  0   1  0  0
                       0  0  1   0  1  0  -1  0  0       0  0  1   0  1  0  -1  0  0
                       0  0  1   0 -1  0  -1  0  0       0  0  1   0 -1  0  -1  0  0
                       0  0 -1   0  1  0   1  0  0       0  0 -1   0  1  0   1  0  0
            tnons      0.0000000  0.0000000  0.0000000     0.5000000  0.5000000  0.5000000
                       0.0000000  0.0000000  0.0000000     0.5000000  0.5000000  0.5000000
                       0.0000000  0.0000000  0.0000000     0.5000000  0.5000000  0.5000000
                       0.0000000  0.0000000  0.0000000     0.5000000  0.5000000  0.5000000
                       0.0000000  0.0000000  0.0000000     0.5000000  0.5000000  0.5000000
                       0.0000000  0.0000000  0.0000000     0.5000000  0.5000000  0.5000000
                       0.0000000  0.0000000  0.0000000     0.5000000  0.5000000  0.5000000
                       0.0000000  0.0000000  0.0000000     0.5000000  0.5000000  0.5000000
                       0.0000000  0.0000000  0.0000000     0.5000000  0.5000000  0.5000000
                       0.0000000  0.0000000  0.0000000     0.5000000  0.5000000  0.5000000
                       0.0000000  0.0000000  0.0000000     0.5000000  0.5000000  0.5000000
                       0.0000000  0.0000000  0.0000000     0.5000000  0.5000000  0.5000000
                       0.0000000  0.0000000  0.0000000     0.5000000  0.5000000  0.5000000
                       0.0000000  0.0000000  0.0000000     0.5000000  0.5000000  0.5000000
                       0.0000000  0.0000000  0.0000000     0.5000000  0.5000000  0.5000000
                       0.0000000  0.0000000  0.0000000     0.5000000  0.5000000  0.5000000
                       0.0000000  0.0000000  0.0000000     0.5000000  0.5000000  0.5000000
                       0.0000000  0.0000000  0.0000000     0.5000000  0.5000000  0.5000000
                       0.0000000  0.0000000  0.0000000     0.5000000  0.5000000  0.5000000
                       0.0000000  0.0000000  0.0000000     0.5000000  0.5000000  0.5000000
                       0.0000000  0.0000000  0.0000000     0.5000000  0.5000000  0.5000000
                       0.0000000  0.0000000  0.0000000     0.5000000  0.5000000  0.5000000
                       0.0000000  0.0000000  0.0000000     0.5000000  0.5000000  0.5000000
                       0.0000000  0.0000000  0.0000000     0.5000000  0.5000000  0.5000000
                       0.0000000  0.0000000  0.0000000     0.5000000  0.5000000  0.5000000
                       0.0000000  0.0000000  0.0000000     0.5000000  0.5000000  0.5000000
                       0.0000000  0.0000000  0.0000000     0.5000000  0.5000000  0.5000000
                       0.0000000  0.0000000  0.0000000     0.5000000  0.5000000  0.5000000
                       0.0000000  0.0000000  0.0000000     0.5000000  0.5000000  0.5000000
                       0.0000000  0.0000000  0.0000000     0.5000000  0.5000000  0.5000000
                       0.0000000  0.0000000  0.0000000     0.5000000  0.5000000  0.5000000
                       0.0000000  0.0000000  0.0000000     0.5000000  0.5000000  0.5000000
                       0.0000000  0.0000000  0.0000000     0.5000000  0.5000000  0.5000000
                       0.0000000  0.0000000  0.0000000     0.5000000  0.5000000  0.5000000
                       0.0000000  0.0000000  0.0000000     0.5000000  0.5000000  0.5000000
                       0.0000000  0.0000000  0.0000000     0.5000000  0.5000000  0.5000000
                       0.0000000  0.0000000  0.0000000     0.5000000  0.5000000  0.5000000
                       0.0000000  0.0000000  0.0000000     0.5000000  0.5000000  0.5000000
                       0.0000000  0.0000000  0.0000000     0.5000000  0.5000000  0.5000000
                       0.0000000  0.0000000  0.0000000     0.5000000  0.5000000  0.5000000
                       0.0000000  0.0000000  0.0000000     0.5000000  0.5000000  0.5000000
                       0.0000000  0.0000000  0.0000000     0.5000000  0.5000000  0.5000000
                       0.0000000  0.0000000  0.0000000     0.5000000  0.5000000  0.5000000
                       0.0000000  0.0000000  0.0000000     0.5000000  0.5000000  0.5000000
                       0.0000000  0.0000000  0.0000000     0.5000000  0.5000000  0.5000000
                       0.0000000  0.0000000  0.0000000     0.5000000  0.5000000  0.5000000
                       0.0000000  0.0000000  0.0000000     0.5000000  0.5000000  0.5000000
                       0.0000000  0.0000000  0.0000000     0.5000000  0.5000000  0.5000000
           tolvrs      1.00000000E-10
           tsmear      2.25000000E-03 Hartree
            typat      1  1
         wfoptalg         114
              wtk        0.00000    0.00001    0.00001    0.00001    0.00001    0.00001
                         0.00001    0.00001    0.00001    0.00001    0.00001    0.00001
                         0.00001    0.00001    0.00001    0.00001    0.00001    0.00001
                         0.00001    0.00001    0.00001    0.00001    0.00001    0.00001
                         0.00001    0.00001    0.00001    0.00001    0.00001    0.00001
                         0.00001    0.00001    0.00001    0.00001    0.00001    0.00001
                         0.00001    0.00001    0.00001    0.00001    0.00001    0.00001
                         0.00001    0.00002    0.00004    0.00004    0.00004    0.00004
                         0.00004    0.00004
                       outvars : Printing only first  50 k-points.
           xangst      0.0000000000E+00  0.0000000000E+00  0.0000000000E+00
                       9.2265141946E-01  9.2265141946E-01  9.2265141946E-01
            xcart      0.0000000000E+00  0.0000000000E+00  0.0000000000E+00
                       1.7435584989E+00  1.7435584989E+00  1.7435584989E+00
             xred      0.0000000000E+00  0.0000000000E+00  0.0000000000E+00
                       5.0000000000E-01  5.0000000000E-01  5.0000000000E-01
            znucl        1.00000

================================================================================

 chkinp: Checking input parameters for consistency.
 DATA TYPE INFORMATION: 
 REAL:      Data type name: REAL(DP) 
            Kind value:      8
            Precision:      15
            Smallest nonnegligible quantity relative to 1: 0.22204460E-015
            Smallest positive number:                      0.22250739E-307
            Largest representable number:                  0.17976931E+309
 INTEGER:   Data type name: INTEGER(default) 
            Kind value: 4
            Bit size:   32
            Largest representable number: 2147483647
 LOGICAL:   Data type name: LOGICAL 
            Kind value: 4
 CHARACTER: Data type name: CHARACTER             Kind value: 1

  ==== OpenMP parallelism is OFF ====
 
  ==== Using MPI-2 specifications ==== 
  MPI-IO support is ON
  xmpi_tag_ub ................    536870911
  xmpi_bsize_ch ..............            1
  xmpi_bsize_int .............            4
  xmpi_bsize_sp ..............            4
  xmpi_bsize_dp ..............            8
  xmpi_bsize_spc .............            8
  xmpi_bsize_dpc .............           16
  xmpio_bsize_frm ............            4
  xmpi_address_kind ..........            8
  xmpi_offset_kind ...........            8
  MPI_WTICK ..................    2.0000000000000000E-008

================================================================================
== DATASET  1 ==================================================================
-   mpi_nproc: 32, omp_nthreads: -1 (-1 if OMP is not activated)


--- !COMMENT
src_file: m_xgScalapack.F90
src_line: 236
message: |
    xgScalapack in auto mode
...


 getdim_nloc : deduce lmnmax  =   5, lnmax  =   3,
                      lmnmaxso=   5, lnmaxso=   3.
 Exchange-correlation functional for the present dataset will be:
  GGA: Perdew-Burke-Ernzerhof functional - ixc=11
 Citation for XC functional:
  J.P.Perdew, K.Burke, M.Ernzerhof, PRL 77, 3865 (1996)

 Unit cell volume ucvol=  4.2403290E+01 bohr^3
 Angles (23,13,12)=  9.00000000E+01  9.00000000E+01  9.00000000E+01 degrees

 getcut: wavevector=  0.0000  0.0000  0.0000  ngfft=  24  24  24
         ecut(hartree)=     42.000   => boxcut(ratio)=   2.35915

 getcut : COMMENT -
  Note that boxcut > 2.2 ; recall that boxcut=Gcut(box)/Gcut(sphere) = 2
  is sufficient for exact treatment of convolution.
  Such a large boxcut is a waste : you could raise ecut
  e.g. ecut=   58.438519 Hartrees makes boxcut=2

- pspini: atom type   1  psp file is /pfs/lustrep2/scratch/project_465000061/magianto/H_pseudo/H.psp8
- pspatm: opening atomic psp file    /pfs/lustrep2/scratch/project_465000061/magianto/H_pseudo/H.psp8
- H     ONCVPSP-3.2.3.1  r_core=   1.00957   0.70586
-  1.00000   1.00000    170501                znucl, zion, pspdat
    8   11    1    4       300   0.00000      pspcod,pspxc,lmax,lloc,mmax,r2well
    2.99000000000000    0.00000000000000    0.00000000000000   rchrg,fchrg,qchrg
     nproj     2     1
     extension_switch     1
  valence charge integrates to:   0.90326502730061853     
  pspatm : epsatm=    0.36235122
         --- l  ekb(1:nproj) -->
             0   -1.701123   -0.534484
             1   -0.503321
 pspatm: atomic psp has been read  and splines computed

   1.44940486E+00                                ecore*ucvol(ha*bohr**3)
 ==== Info on pseudopotentials ====
  Norm-conserving pseudopotentials
  Number of pseudopotentials ..    1
  Number of types of atoms   ..    1
  Scalar calculation (no spin-orbit term)
  Nonlocal part applied using Legendre polynomials
  Max number of non-local projectors over l and type   2
  Highest angular momentum +1 .......   2
  Max number of (l,n)   components ..   3
  Max number of (l,m,n) components ..   3

 Info on the Q-grid used for form factors in spline form: 
   Number of q-points for radial functions ffspl ..   3001
   Number of q-points for vlspl ...................   3001
   vloc is computed in Reciprocal Space
   model core charge treated in real-space

  XC functional for type 1 is 11
  Pseudo valence available: yes

 symatm: atom number 1 is reached starting at atom
   1  2  1  2  1  2  1  2  1  2  1  2  1  2  1  2  1  2  1  2  1  2  1  2
   1  2  1  2  1  2  1  2  1  2  1  2  1  2  1  2  1  2  1  2  1  2  1  2
   1  2  1  2  1  2  1  2  1  2  1  2  1  2  1  2  1  2  1  2  1  2  1  2
   1  2  1  2  1  2  1  2  1  2  1  2  1  2  1  2  1  2  1  2  1  2  1  2
 symatm: atom number 2 is reached starting at atom
   2  1  2  1  2  1  2  1  2  1  2  1  2  1  2  1  2  1  2  1  2  1  2  1
   2  1  2  1  2  1  2  1  2  1  2  1  2  1  2  1  2  1  2  1  2  1  2  1
   2  1  2  1  2  1  2  1  2  1  2  1  2  1  2  1  2  1  2  1  2  1  2  1
   2  1  2  1  2  1  2  1  2  1  2  1  2  1  2  1  2  1  2  1  2  1  2  1
 wfconv:     4 bands initialized randomly with npw=   258, for ikpt=     1
 wfconv:     4 bands initialized randomly with npw=   515, for ikpt=     2
 wfconv:     4 bands initialized randomly with npw=   535, for ikpt=     3
 wfconv:     4 bands initialized randomly with npw=   535, for ikpt=     4
 wfconv:     4 bands initialized randomly with npw=   535, for ikpt=     5
 wfconv:     4 bands initialized randomly with npw=   535, for ikpt=     6
 wfconv:     4 bands initialized randomly with npw=   547, for ikpt=     7
 wfconv:     4 bands initialized randomly with npw=   547, for ikpt=     8
 wfconv:     4 bands initialized randomly with npw=   546, for ikpt=     9
 wfconv:     4 bands initialized randomly with npw=   546, for ikpt=    10
 wfconv:     4 bands initialized randomly with npw=   546, for ikpt=    11
 wfconv:     4 bands initialized randomly with npw=   546, for ikpt=    12
 wfconv:     4 bands initialized randomly with npw=   542, for ikpt=    13
 wfconv:     4 bands initialized randomly with npw=   542, for ikpt=    14
 wfconv:     4 bands initialized randomly with npw=   542, for ikpt=    15
 wfconv:     4 bands initialized randomly with npw=   542, for ikpt=    16
 wfconv:     4 bands initialized randomly with npw=   542, for ikpt=    17
 wfconv:     4 bands initialized randomly with npw=   546, for ikpt=    18
 wfconv:     4 bands initialized randomly with npw=   546, for ikpt=    19
 wfconv:     4 bands initialized randomly with npw=   546, for ikpt=    20
 wfconv:     4 bands initialized randomly with npw=   542, for ikpt=    21
 wfconv:     4 bands initialized randomly with npw=   542, for ikpt=    22
 wfconv:     4 bands initialized randomly with npw=   542, for ikpt=    23
 wfconv:     4 bands initialized randomly with npw=   542, for ikpt=    24
 wfconv:     4 bands initialized randomly with npw=   542, for ikpt=    25
 wfconv:     4 bands initialized randomly with npw=   542, for ikpt=    26
 wfconv:     4 bands initialized randomly with npw=   542, for ikpt=    27
 wfconv:     4 bands initialized randomly with npw=   542, for ikpt=    28
 wfconv:     4 bands initialized randomly with npw=   546, for ikpt=    29
 wfconv:     4 bands initialized randomly with npw=   546, for ikpt=    30
 wfconv:     4 bands initialized randomly with npw=   546, for ikpt=    31
 wfconv:     4 bands initialized randomly with npw=   546, for ikpt=    32
 wfconv:     4 bands initialized randomly with npw=   546, for ikpt=    33
 wfconv:     4 bands initialized randomly with npw=   546, for ikpt=    34
 wfconv:     4 bands initialized randomly with npw=   546, for ikpt=    35
 wfconv:     4 bands initialized randomly with npw=   554, for ikpt=    36
 wfconv:     4 bands initialized randomly with npw=   546, for ikpt=    37
 wfconv:     4 bands initialized randomly with npw=   554, for ikpt=    38
 wfconv:     4 bands initialized randomly with npw=   554, for ikpt=    39
 wfconv:     4 bands initialized randomly with npw=   554, for ikpt=    40
 wfconv:     4 bands initialized randomly with npw=   554, for ikpt=    41
 wfconv:     4 bands initialized randomly with npw=   554, for ikpt=    42
 wfconv:     4 bands initialized randomly with npw=   554, for ikpt=    43
 wfconv:     4 bands initialized randomly with npw=   521, for ikpt=    44
 wfconv:     4 bands initialized randomly with npw=   532, for ikpt=    45
 wfconv:     4 bands initialized randomly with npw=   538, for ikpt=    46
 wfconv:     4 bands initialized randomly with npw=   540, for ikpt=    47
 wfconv:     4 bands initialized randomly with npw=   540, for ikpt=    48
 wfconv:     4 bands initialized randomly with npw=   542, for ikpt=    49
 wfconv:     4 bands initialized randomly with npw=   542, for ikpt=    50
_setup2: Arith. and geom. avg. npw (full set) are     551.273     551.253
 initro: for itypat=  1, take pseudo charge density from pp file

================================================================================
 Enabling timelimit check in function: scfcv_core with timelimit: 12:00:00 [hours]

 getcut: wavevector=  0.0000  0.0000  0.0000  ngfft=  24  24  24
         ecut(hartree)=     42.000   => boxcut(ratio)=   2.35915

 getcut : COMMENT -
  Note that boxcut > 2.2 ; recall that boxcut=Gcut(box)/Gcut(sphere) = 2
  is sufficient for exact treatment of convolution.
  Such a large boxcut is a waste : you could raise ecut
  e.g. ecut=   58.438519 Hartrees makes boxcut=2


 1/G**2 cut-off applied in the following step : cutoff-mode = CRYSTAL

 1/G**2 cut-off applied in the following step : cutoff-mode = CRYSTAL

 1/G**2 cut-off applied in the following step : cutoff-mode = CRYSTAL

 ITER STEP NUMBER     1
 Max number of non-self-consistent loops: 2
 You should try to get npband*bandpp=    4
 For information matrix size is      516
 You should try to get npband*bandpp=    4
 For information matrix size is      516
 You should try to get npband*bandpp=    4
 For information matrix size is      515
 You should try to get npband*bandpp=    4
 For information matrix size is      515
 You should try to get npband*bandpp=    4
 For information matrix size is      535
 You should try to get npband*bandpp=    4
 For information matrix size is      535
 You should try to get npband*bandpp=    4
 For information matrix size is      535
 You should try to get npband*bandpp=    4
 For information matrix size is      535
 You should try to get npband*bandpp=    4
 For information matrix size is      535
 You should try to get npband*bandpp=    4
 For information matrix size is      535
 You should try to get npband*bandpp=    4
 For information matrix size is      535
 You should try to get npband*bandpp=    4
 For information matrix size is      535
 You should try to get npband*bandpp=    4
 For information matrix size is      547
 You should try to get npband*bandpp=    4
 For information matrix size is      547
 You should try to get npband*bandpp=    4
 For information matrix size is      547
 You should try to get npband*bandpp=    4
 For information matrix size is      547
 You should try to get npband*bandpp=    4
 For information matrix size is      546
 You should try to get npband*bandpp=    4
 For information matrix size is      546
 You should try to get npband*bandpp=    4
 For information matrix size is      546
 You should try to get npband*bandpp=    4
 For information matrix size is      546
 You should try to get npband*bandpp=    4
 For information matrix size is      546
 You should try to get npband*bandpp=    4
 For information matrix size is      546
 You should try to get npband*bandpp=    4
 For information matrix size is      546
 You should try to get npband*bandpp=    4
 For information matrix size is      546
 You should try to get npband*bandpp=    4
 For information matrix size is      542
 You should try to get npband*bandpp=    4
 For information matrix size is      542
 You should try to get npband*bandpp=    4
 For information matrix size is      542
 You should try to get npband*bandpp=    4
 For information matrix size is      542
 You should try to get npband*bandpp=    4
 For information matrix size is      542
 You should try to get npband*bandpp=    4
 For information matrix size is      542
 You should try to get npband*bandpp=    4
 For information matrix size is      542
 You should try to get npband*bandpp=    4
 For information matrix size is      542
 You should try to get npband*bandpp=    4
 For information matrix size is      542
 You should try to get npband*bandpp=    4
 For information matrix size is      542
 You should try to get npband*bandpp=    4
 For information matrix size is      546
 You should try to get npband*bandpp=    4
 For information matrix size is      546
 You should try to get npband*bandpp=    4
 For information matrix size is      546
 You should try to get npband*bandpp=    4
 For information matrix size is      546
 You should try to get npband*bandpp=    4
 For information matrix size is      546
 You should try to get npband*bandpp=    4
 For information matrix size is      546
 You should try to get npband*bandpp=    4
 For information matrix size is      542
 You should try to get npband*bandpp=    4
 For information matrix size is      542
 You should try to get npband*bandpp=    4
 For information matrix size is      542
 You should try to get npband*bandpp=    4
 For information matrix size is      542
 You should try to get npband*bandpp=    4
 For information matrix size is      542
 You should try to get npband*bandpp=    4
 For information matrix size is      542
 You should try to get npband*bandpp=    4
 For information matrix size is      542
 You should try to get npband*bandpp=    4
 For information matrix size is      542
 You should try to get npband*bandpp=    4
 For information matrix size is      542
 You should try to get npband*bandpp=    4
 For information matrix size is      542
 You should try to get npband*bandpp=    4
 For information matrix size is      542
 You should try to get npband*bandpp=    4
 For information matrix size is      542
 You should try to get npband*bandpp=    4
 For information matrix size is      542
 You should try to get npband*bandpp=    4
 For information matrix size is      542
 You should try to get npband*bandpp=    4
 For information matrix size is      542
 You should try to get npband*bandpp=    4
 For information matrix size is      542
 You should try to get npband*bandpp=    4
 For information matrix size is      546
 You should try to get npband*bandpp=    4
 For information matrix size is      546
 You should try to get npband*bandpp=    4
 For information matrix size is      546
 You should try to get npband*bandpp=    4
 For information matrix size is      546
 You should try to get npband*bandpp=    4
 For information matrix size is      546
 You should try to get npband*bandpp=    4
 For information matrix size is      546
 You should try to get npband*bandpp=    4
 For information matrix size is      546
 You should try to get npband*bandpp=    4
 For information matrix size is      546
 You should try to get npband*bandpp=    4
 For information matrix size is      546
 You should try to get npband*bandpp=    4
 For information matrix size is      546
 You should try to get npband*bandpp=    4
 For information matrix size is      546
 You should try to get npband*bandpp=    4
 For information matrix size is      546
 You should try to get npband*bandpp=    4
 For information matrix size is      546
 You should try to get npband*bandpp=    4
 For information matrix size is      546
 You should try to get npband*bandpp=    4
 For information matrix size is      554
 You should try to get npband*bandpp=    4
 For information matrix size is      554
 You should try to get npband*bandpp=    4
 For information matrix size is      546
 You should try to get npband*bandpp=    4
 For information matrix size is      546
 You should try to get npband*bandpp=    4
 For information matrix size is      554
 You should try to get npband*bandpp=    4
 For information matrix size is      554
 You should try to get npband*bandpp=    4
 For information matrix size is      554
 You should try to get npband*bandpp=    4
 For information matrix size is      554
 You should try to get npband*bandpp=    4
 For information matrix size is      554
 You should try to get npband*bandpp=    4
 For information matrix size is      554
 You should try to get npband*bandpp=    4
 For information matrix size is      554
 You should try to get npband*bandpp=    4
 For information matrix size is      554
 You should try to get npband*bandpp=    4
 For information matrix size is      554
 You should try to get npband*bandpp=    4
 For information matrix size is      554
 You should try to get npband*bandpp=    4
 For information matrix size is      554
 You should try to get npband*bandpp=    4
 For information matrix size is      554
 You should try to get npband*bandpp=    4
 For information matrix size is      521
 You should try to get npband*bandpp=    4
 For information matrix size is      521
 You should try to get npband*bandpp=    4
 For information matrix size is      532
 You should try to get npband*bandpp=    4
 For information matrix size is      532
 You should try to get npband*bandpp=    4
 For information matrix size is      538
 You should try to get npband*bandpp=    4
 For information matrix size is      538
 You should try to get npband*bandpp=    4
 For information matrix size is      540
 You should try to get npband*bandpp=    4
 For information matrix size is      540
 You should try to get npband*bandpp=    4
 For information matrix size is      540
 You should try to get npband*bandpp=    4
 For information matrix size is      540
 You should try to get npband*bandpp=    4
 For information matrix size is      542
 You should try to get npband*bandpp=    4
 For information matrix size is      542
 You should try to get npband*bandpp=    4
 For information matrix size is      542
 You should try to get npband*bandpp=    4
 For information matrix size is      542
 You should try to get npband*bandpp=    4
 For information matrix size is      541
 You should try to get npband*bandpp=    4
 For information matrix size is      541
 You should try to get npband*bandpp=    4
 For information matrix size is      542
 You should try to get npband*bandpp=    4
 For information matrix size is      542
 You should try to get npband*bandpp=    4
 For information matrix size is      545
 You should try to get npband*bandpp=    4
 For information matrix size is      545
 You should try to get npband*bandpp=    4
 For information matrix size is      544
 You should try to get npband*bandpp=    4
 For information matrix size is      544
 You should try to get npband*bandpp=    4
 For information matrix size is      543
 You should try to get npband*bandpp=    4
 For information matrix size is      543
 You should try to get npband*bandpp=    4
 For information matrix size is      543
 You should try to get npband*bandpp=    4
 For information matrix size is      543
 You should try to get npband*bandpp=    4
 For information matrix size is      542
 You should try to get npband*bandpp=    4
 For information matrix size is      542
 You should try to get npband*bandpp=    4
 For information matrix size is      542
 You should try to get npband*bandpp=    4
 For information matrix size is      542
 You should try to get npband*bandpp=    4
 For information matrix size is      544
 You should try to get npband*bandpp=    4
 For information matrix size is      544
 You should try to get npband*bandpp=    4
 For information matrix size is      544
 You should try to get npband*bandpp=    4
 For information matrix size is      544
 You should try to get npband*bandpp=    4
 For information matrix size is      546
 You should try to get npband*bandpp=    4
 For information matrix size is      546
 You should try to get npband*bandpp=    4
 For information matrix size is      544
 You should try to get npband*bandpp=    4
 For information matrix size is      544
 You should try to get npband*bandpp=    4
 For information matrix size is      542
 You should try to get npband*bandpp=    4
 For information matrix size is      542
 You should try to get npband*bandpp=    4
 For information matrix size is      542
 You should try to get npband*bandpp=    4
 For information matrix size is      542
 You should try to get npband*bandpp=    4
 For information matrix size is      542
 You should try to get npband*bandpp=    4
 For information matrix size is      542
 You should try to get npband*bandpp=    4
 For information matrix size is      542
 You should try to get npband*bandpp=    4
 For information matrix size is      542
 You should try to get npband*bandpp=    4
 For information matrix size is      542
 You should try to get npband*bandpp=    4
 For information matrix size is      542
 You should try to get npband*bandpp=    4
 For information matrix size is      542
 You should try to get npband*bandpp=    4
 For information matrix size is      542
 You should try to get npband*bandpp=    4
 For information matrix size is      542
 You should try to get npband*bandpp=    4
 For information matrix size is      542
 You should try to get npband*bandpp=    4
 For information matrix size is      543
 You should try to get npband*bandpp=    4
 For information matrix size is      543
 You should try to get npband*bandpp=    4
 For information matrix size is      546
 You should try to get npband*bandpp=    4
 For information matrix size is      546
 You should try to get npband*bandpp=    4
 For information matrix size is      546
 You should try to get npband*bandpp=    4
 For information matrix size is      546
 You should try to get npband*bandpp=    4
 For information matrix size is      546
 You should try to get npband*bandpp=    4
 For information matrix size is      546
 You should try to get npband*bandpp=    4
 For information matrix size is      546
 You should try to get npband*bandpp=    4
 For information matrix size is      546
 You should try to get npband*bandpp=    4
 For information matrix size is      546
 You should try to get npband*bandpp=    4
 For information matrix size is      546
 You should try to get npband*bandpp=    4
 For information matrix size is      546
 You should try to get npband*bandpp=    4
 For information matrix size is      546
 You should try to get npband*bandpp=    4
 For information matrix size is      546
 You should try to get npband*bandpp=    4
 For information matrix size is      546
 You should try to get npband*bandpp=    4
 For information matrix size is      546
 You should try to get npband*bandpp=    4
 For information matrix size is      546
 You should try to get npband*bandpp=    4
 For information matrix size is      552
 You should try to get npband*bandpp=    4
 For information matrix size is      552
 You should try to get npband*bandpp=    4
 For information matrix size is      556
 You should try to get npband*bandpp=    4
 For information matrix size is      556
 You should try to get npband*bandpp=    4
 For information matrix size is      554
 You should try to get npband*bandpp=    4
 For information matrix size is      554
 You should try to get npband*bandpp=    4
 For information matrix size is      554
 You should try to get npband*bandpp=    4
 For information matrix size is      554
 You should try to get npband*bandpp=    4
 For information matrix size is      554
 You should try to get npband*bandpp=    4
 For information matrix size is      554
 You should try to get npband*bandpp=    4
 For information matrix size is      554
 You should try to get npband*bandpp=    4
 For information matrix size is      554
 You should try to get npband*bandpp=    4
 For information matrix size is      554
 You should try to get npband*bandpp=    4
 For information matrix size is      554
 You should try to get npband*bandpp=    4
 For information matrix size is      539
 You should try to get npband*bandpp=    4
 For information matrix size is      539
 You should try to get npband*bandpp=    4
 For information matrix size is      541
 You should try to get npband*bandpp=    4
 For information matrix size is      541
 You should try to get npband*bandpp=    4
 For information matrix size is      541
 You should try to get npband*bandpp=    4
 For information matrix size is      541
 You should try to get npband*bandpp=    4
 For information matrix size is      542
 You should try to get npband*bandpp=    4
 For information matrix size is      542
 You should try to get npband*bandpp=    4
 For information matrix size is      544
 You should try to get npband*bandpp=    4
 For information matrix size is      544
 You should try to get npband*bandpp=    4
 For information matrix size is      544
 You should try to get npband*bandpp=    4
 For information matrix size is      544
 You should try to get npband*bandpp=    4
 For information matrix size is      542
 You should try to get npband*bandpp=    4
 For information matrix size is      542
 You should try to get npband*bandpp=    4
 For information matrix size is      542
 You should try to get npband*bandpp=    4
 For information matrix size is      542
 You should try to get npband*bandpp=    4
 For information matrix size is      543
 You should try to get npband*bandpp=    4
 For information matrix size is      543
 You should try to get npband*bandpp=    4
 For information matrix size is      542
 You should try to get npband*bandpp=    4
 For information matrix size is      542
 You should try to get npband*bandpp=    4
 For information matrix size is      540
 You should try to get npband*bandpp=    4
 For information matrix size is      540
 You should try to get npband*bandpp=    4
 For information matrix size is      542
 You should try to get npband*bandpp=    4
 For information matrix size is      542
 You should try to get npband*bandpp=    4
 For information matrix size is      542
 You should try to get npband*bandpp=    4
 For information matrix size is      542
 You should try to get npband*bandpp=    4
 For information matrix size is      545
 You should try to get npband*bandpp=    4
 For information matrix size is      545
 You should try to get npband*bandpp=    4
 For information matrix size is      545
 You should try to get npband*bandpp=    4
 For information matrix size is      545
 You should try to get npband*bandpp=    4
 For information matrix size is      545
 You should try to get npband*bandpp=    4
 For information matrix size is      545
 You should try to get npband*bandpp=    4
 For information matrix size is      546
 You should try to get npband*bandpp=    4
 For information matrix size is      546
 You should try to get npband*bandpp=    4
 For information matrix size is      546
 You should try to get npband*bandpp=    4
 For information matrix size is      546
 You should try to get npband*bandpp=    4
 For information matrix size is      546
 You should try to get npband*bandpp=    4
 For information matrix size is      546
 You should try to get npband*bandpp=    4
 For information matrix size is      544
 You should try to get npband*bandpp=    4
 For information matrix size is      544
 You should try to get npband*bandpp=    4
 For information matrix size is      544
 You should try to get npband*bandpp=    4
 For information matrix size is      544
 You should try to get npband*bandpp=    4
 For information matrix size is      544
 You should try to get npband*bandpp=    4
 For information matrix size is      544
 You should try to get npband*bandpp=    4
 For information matrix size is      544
 You should try to get npband*bandpp=    4
 For information matrix size is      544
 You should try to get npband*bandpp=    4
 For information matrix size is      544
 You should try to get npband*bandpp=    4
 For information matrix size is      544
 You should try to get npband*bandpp=    4
 For information matrix size is      544
 You should try to get npband*bandpp=    4
 For information matrix size is      544
 You should try to get npband*bandpp=    4
 For information matrix size is      545
 You should try to get npband*bandpp=    4
 For information matrix size is      545
 You should try to get npband*bandpp=    4
 For information matrix size is      545
 You should try to get npband*bandpp=    4
 For information matrix size is      545
 You should try to get npband*bandpp=    4
 For information matrix size is      546
 You should try to get npband*bandpp=    4
 For information matrix size is      546
 You should try to get npband*bandpp=    4
 For information matrix size is      546
 You should try to get npband*bandpp=    4
 For information matrix size is      546
 You should try to get npband*bandpp=    4
 For information matrix size is      546
 You should try to get npband*bandpp=    4
 For information matrix size is      546
 You should try to get npband*bandpp=    4
 For information matrix size is      546
 You should try to get npband*bandpp=    4
 For information matrix size is      546
 You should try to get npband*bandpp=    4
 For information matrix size is      546
 You should try to get npband*bandpp=    4
 For information matrix size is      546
 You should try to get npband*bandpp=    4
 For information matrix size is      546
 You should try to get npband*bandpp=    4
 For information matrix size is      546
 You should try to get npband*bandpp=    4
 For information matrix size is      546
 You should try to get npband*bandpp=    4
 For information matrix size is      546
 You should try to get npband*bandpp=    4
 For information matrix size is      552
 You should try to get npband*bandpp=    4
 For information matrix size is      552
 You should try to get npband*bandpp=    4
 For information matrix size is      556
 You should try to get npband*bandpp=    4
 For information matrix size is      556
 You should try to get npband*bandpp=    4
 For information matrix size is      556
 You should try to get npband*bandpp=    4
 For information matrix size is      556
 You should try to get npband*bandpp=    4
 For information matrix size is      554
 You should try to get npband*bandpp=    4
 For information matrix size is      554
 You should try to get npband*bandpp=    4
 For information matrix size is      554
 You should try to get npband*bandpp=    4
 For information matrix size is      554
 You should try to get npband*bandpp=    4
 For information matrix size is      554
 You should try to get npband*bandpp=    4
 For information matrix size is      554
 You should try to get npband*bandpp=    4
 For information matrix size is      554
 You should try to get npband*bandpp=    4
 For information matrix size is      554
 You should try to get npband*bandpp=    4
 For information matrix size is      543
 You should try to get npband*bandpp=    4
 For information matrix size is      543
 You should try to get npband*bandpp=    4
 For information matrix size is      543
 You should try to get npband*bandpp=    4
 For information matrix size is      543
 You should try to get npband*bandpp=    4
 For information matrix size is      543
 You should try to get npband*bandpp=    4
 For information matrix size is      543
 You should try to get npband*bandpp=    4
 For information matrix size is      547
 You should try to get npband*bandpp=    4
 For information matrix size is      547
 You should try to get npband*bandpp=    4
 For information matrix size is      544
 You should try to get npband*bandpp=    4
 For information matrix size is      544
 You should try to get npband*bandpp=    4
 For information matrix size is      543
 You should try to get npband*bandpp=    4
 For information matrix size is      543
 You should try to get npband*bandpp=    4
 For information matrix size is      544
 You should try to get npband*bandpp=    4
 For information matrix size is      544
 You should try to get npband*bandpp=    4
 For information matrix size is      541
 You should try to get npband*bandpp=    4
 For information matrix size is      541
 You should try to get npband*bandpp=    4
 For information matrix size is      543
 You should try to get npband*bandpp=    4
 For information matrix size is      543
 You should try to get npband*bandpp=    4
 For information matrix size is      540
 You should try to get npband*bandpp=    4
 For information matrix size is      540
 You should try to get npband*bandpp=    4
 For information matrix size is      540
 You should try to get npband*bandpp=    4
 For information matrix size is      540
 You should try to get npband*bandpp=    4
 For information matrix size is      542
 You should try to get npband*bandpp=    4
 For information matrix size is      542
 You should try to get npband*bandpp=    4
 For information matrix size is      542
 You should try to get npband*bandpp=    4
 For information matrix size is      542
 You should try to get npband*bandpp=    4
 For information matrix size is      543
 You should try to get npband*bandpp=    4
 For information matrix size is      543
 You should try to get npband*bandpp=    4
 For information matrix size is      543
 You should try to get npband*bandpp=    4
 For information matrix size is      543
 You should try to get npband*bandpp=    4
 For information matrix size is      541
 You should try to get npband*bandpp=    4
 For information matrix size is      541
 You should try to get npband*bandpp=    4
 For information matrix size is      541
 You should try to get npband*bandpp=    4
 For information matrix size is      541
 You should try to get npband*bandpp=    4
 For information matrix size is      545
 You should try to get npband*bandpp=    4
 For information matrix size is      545
 You should try to get npband*bandpp=    4
 For information matrix size is      543
 You should try to get npband*bandpp=    4
 For information matrix size is      543
 You should try to get npband*bandpp=    4
 For information matrix size is      543
 You should try to get npband*bandpp=    4
 For information matrix size is      543
 You should try to get npband*bandpp=    4
 For information matrix size is      543
 You should try to get npband*bandpp=    4
 For information matrix size is      543
 You should try to get npband*bandpp=    4
 For information matrix size is      544
 You should try to get npband*bandpp=    4
 For information matrix size is      544
 You should try to get npband*bandpp=    4
 For information matrix size is      544
 You should try to get npband*bandpp=    4
 For information matrix size is      544
 You should try to get npband*bandpp=    4
 For information matrix size is      545
 You should try to get npband*bandpp=    4
 For information matrix size is      545
 You should try to get npband*bandpp=    4
 For information matrix size is      545
 You should try to get npband*bandpp=    4
 For information matrix size is      545
 You should try to get npband*bandpp=    4
 For information matrix size is      547
 You should try to get npband*bandpp=    4
 For information matrix size is      547
 You should try to get npband*bandpp=    4
 For information matrix size is      548
 You should try to get npband*bandpp=    4
 For information matrix size is      548
 You should try to get npband*bandpp=    4
 For information matrix size is      548
 You should try to get npband*bandpp=    4
 For information matrix size is      548
 You should try to get npband*bandpp=    4
 For information matrix size is      546
 You should try to get npband*bandpp=    4
 For information matrix size is      546
 You should try to get npband*bandpp=    4
 For information matrix size is      546
 You should try to get npband*bandpp=    4
 For information matrix size is      546
 You should try to get npband*bandpp=    4
 For information matrix size is      550
 You should try to get npband*bandpp=    4
 For information matrix size is      550
 You should try to get npband*bandpp=    4
 For information matrix size is      548
 You should try to get npband*bandpp=    4
 For information matrix size is      548
 You should try to get npband*bandpp=    4
 For information matrix size is      550
 You should try to get npband*bandpp=    4
 For information matrix size is      550
 You should try to get npband*bandpp=    4
 For information matrix size is      552
 You should try to get npband*bandpp=    4
 For information matrix size is      552
 You should try to get npband*bandpp=    4
 For information matrix size is      556
 You should try to get npband*bandpp=    4
 For information matrix size is      556
 You should try to get npband*bandpp=    4
 For information matrix size is      560
 You should try to get npband*bandpp=    4
 For information matrix size is      560
 You should try to get npband*bandpp=    4
 For information matrix size is      558
 You should try to get npband*bandpp=    4
 For information matrix size is      558
 You should try to get npband*bandpp=    4
 For information matrix size is      558
 You should try to get npband*bandpp=    4
 For information matrix size is      558
 You should try to get npband*bandpp=    4
 For information matrix size is      554
 You should try to get npband*bandpp=    4
 For information matrix size is      554
 You should try to get npband*bandpp=    4
 For information matrix size is      554
 You should try to get npband*bandpp=    4
 For information matrix size is      554
 You should try to get npband*bandpp=    4
 For information matrix size is      543
 You should try to get npband*bandpp=    4
 For information matrix size is      543
 You should try to get npband*bandpp=    4
 For information matrix size is      545
 You should try to get npband*bandpp=    4
 For information matrix size is      545
 You should try to get npband*bandpp=    4
 For information matrix size is      547
 You should try to get npband*bandpp=    4
 For information matrix size is      547
 You should try to get npband*bandpp=    4
 For information matrix size is      543
 You should try to get npband*bandpp=    4
 For information matrix size is      543
 You should try to get npband*bandpp=    4
 For information matrix size is      544
 You should try to get npband*bandpp=    4
 For information matrix size is      544
 You should try to get npband*bandpp=    4
 For information matrix size is      546
 You should try to get npband*bandpp=    4
 For information matrix size is      546
 You should try to get npband*bandpp=    4
 For information matrix size is      542
 You should try to get npband*bandpp=    4
 For information matrix size is      542
 You should try to get npband*bandpp=    4
 For information matrix size is      544
 You should try to get npband*bandpp=    4
 For information matrix size is      544
 You should try to get npband*bandpp=    4
 For information matrix size is      541
 You should try to get npband*bandpp=    4
 For information matrix size is      541
 You should try to get npband*bandpp=    4
 For information matrix size is      543
 You should try to get npband*bandpp=    4
 For information matrix size is      543
 You should try to get npband*bandpp=    4
 For information matrix size is      542
 You should try to get npband*bandpp=    4
 For information matrix size is      542
 You should try to get npband*bandpp=    4
 For information matrix size is      542
 You should try to get npband*bandpp=    4
 For information matrix size is      542
 You should try to get npband*bandpp=    4
 For information matrix size is      542
 You should try to get npband*bandpp=    4
 For information matrix size is      542
 You should try to get npband*bandpp=    4
 For information matrix size is      541
 You should try to get npband*bandpp=    4
 For information matrix size is      541
 You should try to get npband*bandpp=    4
 For information matrix size is      539
 You should try to get npband*bandpp=    4
 For information matrix size is      539
 You should try to get npband*bandpp=    4
 For information matrix size is      539
 You should try to get npband*bandpp=    4
 For information matrix size is      539
 You should try to get npband*bandpp=    4
 For information matrix size is      541
 You should try to get npband*bandpp=    4
 For information matrix size is      541
 You should try to get npband*bandpp=    4
 For information matrix size is      541
 You should try to get npband*bandpp=    4
 For information matrix size is      541
 You should try to get npband*bandpp=    4
 For information matrix size is      541
 You should try to get npband*bandpp=    4
 For information matrix size is      541
 You should try to get npband*bandpp=    4
 For information matrix size is      541
 You should try to get npband*bandpp=    4
 For information matrix size is      541
 You should try to get npband*bandpp=    4
 For information matrix size is      541
 You should try to get npband*bandpp=    4
 For information matrix size is      541
 You should try to get npband*bandpp=    4
 For information matrix size is      541
 You should try to get npband*bandpp=    4
 For information matrix size is      541
 You should try to get npband*bandpp=    4
 For information matrix size is      544
 You should try to get npband*bandpp=    4
 For information matrix size is      544
 You should try to get npband*bandpp=    4
 For information matrix size is      544
 You should try to get npband*bandpp=    4
 For information matrix size is      544
 You should try to get npband*bandpp=    4
 For information matrix size is      546
 You should try to get npband*bandpp=    4
 For information matrix size is      546
 You should try to get npband*bandpp=    4
 For information matrix size is      545
 You should try to get npband*bandpp=    4
 For information matrix size is      545
 You should try to get npband*bandpp=    4
 For information matrix size is      545
 You should try to get npband*bandpp=    4
 For information matrix size is      545
 You should try to get npband*bandpp=    4
 For information matrix size is      545
 You should try to get npband*bandpp=    4
 For information matrix size is      545
 You should try to get npband*bandpp=    4
 For information matrix size is      548
 You should try to get npband*bandpp=    4
 For information matrix size is      548
 You should try to get npband*bandpp=    4
 For information matrix size is      548
 You should try to get npband*bandpp=    4
 For information matrix size is      548
 You should try to get npband*bandpp=    4
 For information matrix size is      548
 You should try to get npband*bandpp=    4
 For information matrix size is      548
 You should try to get npband*bandpp=    4
 For information matrix size is      552
 You should try to get npband*bandpp=    4
 For information matrix size is      552
 You should try to get npband*bandpp=    4
 For information matrix size is      554
 You should try to get npband*bandpp=    4
 For information matrix size is      554
 You should try to get npband*bandpp=    4
 For information matrix size is      556
 You should try to get npband*bandpp=    4
 For information matrix size is      556
 You should try to get npband*bandpp=    4
 For information matrix size is      558
 You should try to get npband*bandpp=    4
 For information matrix size is      558
 You should try to get npband*bandpp=    4
 For information matrix size is      560
 You should try to get npband*bandpp=    4
 For information matrix size is      560
 You should try to get npband*bandpp=    4
 For information matrix size is      560
 You should try to get npband*bandpp=    4
 For information matrix size is      560
 You should try to get npband*bandpp=    4
 For information matrix size is      560
 You should try to get npband*bandpp=    4
 For information matrix size is      560
 You should try to get npband*bandpp=    4
 For information matrix size is      562
 You should try to get npband*bandpp=    4
 For information matrix size is      562
 You should try to get npband*bandpp=    4
 For information matrix size is      543
 You should try to get npband*bandpp=    4
 For information matrix size is      543
 You should try to get npband*bandpp=    4
 For information matrix size is      545
 You should try to get npband*bandpp=    4
 For information matrix size is      545
 You should try to get npband*bandpp=    4
 For information matrix size is      545
 You should try to get npband*bandpp=    4
 For information matrix size is      545
 You should try to get npband*bandpp=    4
 For information matrix size is      544
 You should try to get npband*bandpp=    4
 For information matrix size is      544
 You should try to get npband*bandpp=    4
 For information matrix size is      548
 You should try to get npband*bandpp=    4
 For information matrix size is      548
 You should try to get npband*bandpp=    4
 For information matrix size is      544
 You should try to get npband*bandpp=    4
 For information matrix size is      544
 You should try to get npband*bandpp=    4
 For information matrix size is      546
 You should try to get npband*bandpp=    4
 For information matrix size is      546
 You should try to get npband*bandpp=    4
 For information matrix size is      546
 You should try to get npband*bandpp=    4
 For information matrix size is      546
 You should try to get npband*bandpp=    4
 For information matrix size is      545
 You should try to get npband*bandpp=    4
 For information matrix size is      545
 You should try to get npband*bandpp=    4
 For information matrix size is      543
 You should try to get npband*bandpp=    4
 For information matrix size is      543
 You should try to get npband*bandpp=    4
 For information matrix size is      543
 You should try to get npband*bandpp=    4
 For information matrix size is      543
 You should try to get npband*bandpp=    4
 For information matrix size is      543
 You should try to get npband*bandpp=    4
 For information matrix size is      543
 You should try to get npband*bandpp=    4
 For information matrix size is      541
 You should try to get npband*bandpp=    4
 For information matrix size is      541
 You should try to get npband*bandpp=    4
 For information matrix size is      540
 You should try to get npband*bandpp=    4
 For information matrix size is      540
 You should try to get npband*bandpp=    4
 For information matrix size is      539
 You should try to get npband*bandpp=    4
 For information matrix size is      539
 You should try to get npband*bandpp=    4
 For information matrix size is      539
 You should try to get npband*bandpp=    4
 For information matrix size is      539
 You should try to get npband*bandpp=    4
 For information matrix size is      539
 You should try to get npband*bandpp=    4
 For information matrix size is      539
 You should try to get npband*bandpp=    4
 For information matrix size is      539
 You should try to get npband*bandpp=    4
 For information matrix size is      539
 You should try to get npband*bandpp=    4
 For information matrix size is      539
 You should try to get npband*bandpp=    4
 For information matrix size is      539
 You should try to get npband*bandpp=    4
 For information matrix size is      541
 You should try to get npband*bandpp=    4
 For information matrix size is      541
 You should try to get npband*bandpp=    4
 For information matrix size is      541
 You should try to get npband*bandpp=    4
 For information matrix size is      541
 You should try to get npband*bandpp=    4
 For information matrix size is      542
 You should try to get npband*bandpp=    4
 For information matrix size is      542
 You should try to get npband*bandpp=    4
 For information matrix size is      544
 You should try to get npband*bandpp=    4
 For information matrix size is      544
 You should try to get npband*bandpp=    4
 For information matrix size is      544
 You should try to get npband*bandpp=    4
 For information matrix size is      544
 You should try to get npband*bandpp=    4
 For information matrix size is      544
 You should try to get npband*bandpp=    4
 For information matrix size is      544
 You should try to get npband*bandpp=    4
 For information matrix size is      545
 You should try to get npband*bandpp=    4
 For information matrix size is      545
 You should try to get npband*bandpp=    4
 For information matrix size is      547
 You should try to get npband*bandpp=    4
 For information matrix size is      547
 You should try to get npband*bandpp=    4
 For information matrix size is      549
 You should try to get npband*bandpp=    4
 For information matrix size is      549
 You should try to get npband*bandpp=    4
 For information matrix size is      549
 You should try to get npband*bandpp=    4
 For information matrix size is      549
 You should try to get npband*bandpp=    4
 For information matrix size is      549
 You should try to get npband*bandpp=    4
 For information matrix size is      549
 You should try to get npband*bandpp=    4
 For information matrix size is      551
 You should try to get npband*bandpp=    4
 For information matrix size is      551
 You should try to get npband*bandpp=    4
 For information matrix size is      553
 You should try to get npband*bandpp=    4
 For information matrix size is      553
 You should try to get npband*bandpp=    4
 For information matrix size is      553
 You should try to get npband*bandpp=    4
 For information matrix size is      553
 You should try to get npband*bandpp=    4
 For information matrix size is      557
 You should try to get npband*bandpp=    4
 For information matrix size is      557
 You should try to get npband*bandpp=    4
 For information matrix size is      561
 You should try to get npband*bandpp=    4
 For information matrix size is      561
 You should try to get npband*bandpp=    4
 For information matrix size is      560
 You should try to get npband*bandpp=    4
 For information matrix size is      560
 You should try to get npband*bandpp=    4
 For information matrix size is      562
 You should try to get npband*bandpp=    4
 For information matrix size is      562
 You should try to get npband*bandpp=    4
 For information matrix size is      562
 You should try to get npband*bandpp=    4
 For information matrix size is      562
 You should try to get npband*bandpp=    4
 For information matrix size is      549
 You should try to get npband*bandpp=    4
 For information matrix size is      549
 You should try to get npband*bandpp=    4
 For information matrix size is      547
 You should try to get npband*bandpp=    4
 For information matrix size is      547
 You should try to get npband*bandpp=    4
 For information matrix size is      546
 You should try to get npband*bandpp=    4
 For information matrix size is      546
 You should try to get npband*bandpp=    4
 For information matrix size is      544
 You should try to get npband*bandpp=    4
 For information matrix size is      544
 You should try to get npband*bandpp=    4
 For information matrix size is      544
 You should try to get npband*bandpp=    4
 For information matrix size is      544
 You should try to get npband*bandpp=    4
 For information matrix size is      550
 You should try to get npband*bandpp=    4
 For information matrix size is      550
 You should try to get npband*bandpp=    4
 For information matrix size is      546
 You should try to get npband*bandpp=    4
 For information matrix size is      546
 You should try to get npband*bandpp=    4
 For information matrix size is      546
 You should try to get npband*bandpp=    4
 For information matrix size is      546
 You should try to get npband*bandpp=    4
 For information matrix size is      545
 You should try to get npband*bandpp=    4
 For information matrix size is      545
 You should try to get npband*bandpp=    4
[...]
                       2.38095238E-02  1.19047619E-02  0.00000000E+00
                       3.57142857E-02  1.19047619E-02  0.00000000E+00
                       4.76190476E-02  1.19047619E-02  0.00000000E+00
                       5.95238095E-02  1.19047619E-02  0.00000000E+00
                       7.14285714E-02  1.19047619E-02  0.00000000E+00
                       8.33333333E-02  1.19047619E-02  0.00000000E+00
                       outvar_i_n : Printing only first  50 k-points.
         kptrlatt       84    0    0      0   84    0      0    0   84
          kptrlen      2.92917828E+02
P           mkmem         444
            natom           2
            nband           4
            ngfft          24      24      24
             nkpt       14190
-        np_spkpt          32
            nstep         500
             nsym          96
           ntypat           1
              occ      2.000000  0.000000  0.000000  0.000000
                       2.000000  0.000000  0.000000  0.000000
                       2.000000  0.000000  0.000000  0.000000
                       2.000000  0.000000  0.000000  0.000000
                       2.000000  0.000000  0.000000  0.000000
                       2.000000  0.000000  0.000000  0.000000
                       2.000000  0.000000  0.000000  0.000000
                       2.000000  0.000000  0.000000  0.000000
                       2.000000  0.000000  0.000000  0.000000
                       2.000000  0.000000  0.000000  0.000000
                       2.000000  0.000000  0.000000  0.000000
                       2.000000  0.000000  0.000000  0.000000
                       2.000000  0.000000  0.000000  0.000000
                       2.000000  0.000000  0.000000  0.000000
                       2.000000  0.000000  0.000000  0.000000
                       2.000000  0.000000  0.000000  0.000000
                       2.000000  0.000000  0.000000  0.000000
                       2.000000  0.000000  0.000000  0.000000
                       2.000000  0.000000  0.000000  0.000000
                       2.000000  0.000000  0.000000  0.000000
                       2.000000  0.000000  0.000000  0.000000
                       2.000000  0.000000  0.000000  0.000000
                       2.000000  0.000000  0.000000  0.000000
                       2.000000  0.000000  0.000000  0.000000
                       2.000000  0.000000  0.000000  0.000000
                       2.000000  0.000000  0.000000  0.000000
                       2.000000  0.000000  0.000000  0.000000
                       2.000000  0.000000  0.000000  0.000000
                       2.000000  0.000000  0.000000  0.000000
                       2.000000  0.000000  0.000000  0.000000
                       2.000000  0.000000  0.000000  0.000000
                       2.000000  0.000007  0.000000  0.000000
                       2.000000  0.096899  0.000000  0.000000
                       2.000000  1.997135  0.000000  0.000000
                       2.000000  2.000000  0.000000  0.000000
                       2.000000  2.000000  0.000000  0.000000
                       2.000000  2.000000  0.000000  0.000000
                       2.000000  2.000000  0.000000  0.000000
                       2.000000  2.000000  0.000000  0.000000
                       2.000000  2.000000  0.000000  0.000000
                       2.000000  2.000000  0.000000  0.000000
                       2.000000  2.000000  0.000000  0.000000
                       2.000000  2.000000  0.000000  0.000000
                       2.000000  0.000000  0.000000  0.000000
                       2.000000  0.000000  0.000000  0.000000
                       2.000000  0.000000  0.000000  0.000000
                       2.000000  0.000000  0.000000  0.000000
                       2.000000  0.000000  0.000000  0.000000
                       2.000000  0.000000  0.000000  0.000000
                       2.000000  0.000000  0.000000  0.000000
                       prtocc : prtvol=0, do not print more k-points.
           occopt           3
           ortalg          -2
        paral_kgb           1
            prtwf          -1
            rprim      3.4871169978E+00  0.0000000000E+00  0.0000000000E+00
                       0.0000000000E+00  3.4871169978E+00  0.0000000000E+00
                       0.0000000000E+00  0.0000000000E+00  3.4871169978E+00
           strten      1.9311965140E-04  1.9311965140E-04  1.9311965140E-04
                       0.0000000000E+00  0.0000000000E+00  0.0000000000E+00
           symrel      1  0  0   0  1  0   0  0  1       1  0  0   0  1  0   0  0  1
                      -1  0  0   0 -1  0   0  0 -1      -1  0  0   0 -1  0   0  0 -1
                      -1  0  0   0  1  0   0  0 -1      -1  0  0   0  1  0   0  0 -1
                       1  0  0   0 -1  0   0  0  1       1  0  0   0 -1  0   0  0  1
                      -1  0  0   0 -1  0   0  0  1      -1  0  0   0 -1  0   0  0  1
                       1  0  0   0  1  0   0  0 -1       1  0  0   0  1  0   0  0 -1
                       1  0  0   0 -1  0   0  0 -1       1  0  0   0 -1  0   0  0 -1
                      -1  0  0   0  1  0   0  0  1      -1  0  0   0  1  0   0  0  1
                       0  1  0   1  0  0   0  0  1       0  1  0   1  0  0   0  0  1
                       0 -1  0  -1  0  0   0  0 -1       0 -1  0  -1  0  0   0  0 -1
                       0 -1  0   1  0  0   0  0 -1       0 -1  0   1  0  0   0  0 -1
                       0  1  0  -1  0  0   0  0  1       0  1  0  -1  0  0   0  0  1
                       0 -1  0  -1  0  0   0  0  1       0 -1  0  -1  0  0   0  0  1
                       0  1  0   1  0  0   0  0 -1       0  1  0   1  0  0   0  0 -1
                       0  1  0  -1  0  0   0  0 -1       0  1  0  -1  0  0   0  0 -1
                       0 -1  0   1  0  0   0  0  1       0 -1  0   1  0  0   0  0  1
                       0  0  1   1  0  0   0  1  0       0  0  1   1  0  0   0  1  0
                       0  0 -1  -1  0  0   0 -1  0       0  0 -1  -1  0  0   0 -1  0
                       0  0 -1   1  0  0   0 -1  0       0  0 -1   1  0  0   0 -1  0
                       0  0  1  -1  0  0   0  1  0       0  0  1  -1  0  0   0  1  0
                       0  0 -1  -1  0  0   0  1  0       0  0 -1  -1  0  0   0  1  0
                       0  0  1   1  0  0   0 -1  0       0  0  1   1  0  0   0 -1  0
                       0  0  1  -1  0  0   0 -1  0       0  0  1  -1  0  0   0 -1  0
                       0  0 -1   1  0  0   0  1  0       0  0 -1   1  0  0   0  1  0
                       1  0  0   0  0  1   0  1  0       1  0  0   0  0  1   0  1  0
                      -1  0  0   0  0 -1   0 -1  0      -1  0  0   0  0 -1   0 -1  0
                      -1  0  0   0  0  1   0 -1  0      -1  0  0   0  0  1   0 -1  0
                       1  0  0   0  0 -1   0  1  0       1  0  0   0  0 -1   0  1  0
                      -1  0  0   0  0 -1   0  1  0      -1  0  0   0  0 -1   0  1  0
                       1  0  0   0  0  1   0 -1  0       1  0  0   0  0  1   0 -1  0
                       1  0  0   0  0 -1   0 -1  0       1  0  0   0  0 -1   0 -1  0
                      -1  0  0   0  0  1   0  1  0      -1  0  0   0  0  1   0  1  0
                       0  1  0   0  0  1   1  0  0       0  1  0   0  0  1   1  0  0
                       0 -1  0   0  0 -1  -1  0  0       0 -1  0   0  0 -1  -1  0  0
                       0 -1  0   0  0  1  -1  0  0       0 -1  0   0  0  1  -1  0  0
                       0  1  0   0  0 -1   1  0  0       0  1  0   0  0 -1   1  0  0
                       0 -1  0   0  0 -1   1  0  0       0 -1  0   0  0 -1   1  0  0
                       0  1  0   0  0  1  -1  0  0       0  1  0   0  0  1  -1  0  0
                       0  1  0   0  0 -1  -1  0  0       0  1  0   0  0 -1  -1  0  0
                       0 -1  0   0  0  1   1  0  0       0 -1  0   0  0  1   1  0  0
                       0  0  1   0  1  0   1  0  0       0  0  1   0  1  0   1  0  0
                       0  0 -1   0 -1  0  -1  0  0       0  0 -1   0 -1  0  -1  0  0
                       0  0 -1   0  1  0  -1  0  0       0  0 -1   0  1  0  -1  0  0
                       0  0  1   0 -1  0   1  0  0       0  0  1   0 -1  0   1  0  0
                       0  0 -1   0 -1  0   1  0  0       0  0 -1   0 -1  0   1  0  0
                       0  0  1   0  1  0  -1  0  0       0  0  1   0  1  0  -1  0  0
                       0  0  1   0 -1  0  -1  0  0       0  0  1   0 -1  0  -1  0  0
                       0  0 -1   0  1  0   1  0  0       0  0 -1   0  1  0   1  0  0
            tnons      0.0000000  0.0000000  0.0000000     0.5000000  0.5000000  0.5000000
                       0.0000000  0.0000000  0.0000000     0.5000000  0.5000000  0.5000000
                       0.0000000  0.0000000  0.0000000     0.5000000  0.5000000  0.5000000
                       0.0000000  0.0000000  0.0000000     0.5000000  0.5000000  0.5000000
                       0.0000000  0.0000000  0.0000000     0.5000000  0.5000000  0.5000000
                       0.0000000  0.0000000  0.0000000     0.5000000  0.5000000  0.5000000
                       0.0000000  0.0000000  0.0000000     0.5000000  0.5000000  0.5000000
                       0.0000000  0.0000000  0.0000000     0.5000000  0.5000000  0.5000000
                       0.0000000  0.0000000  0.0000000     0.5000000  0.5000000  0.5000000
                       0.0000000  0.0000000  0.0000000     0.5000000  0.5000000  0.5000000
                       0.0000000  0.0000000  0.0000000     0.5000000  0.5000000  0.5000000
                       0.0000000  0.0000000  0.0000000     0.5000000  0.5000000  0.5000000
                       0.0000000  0.0000000  0.0000000     0.5000000  0.5000000  0.5000000
                       0.0000000  0.0000000  0.0000000     0.5000000  0.5000000  0.5000000
                       0.0000000  0.0000000  0.0000000     0.5000000  0.5000000  0.5000000
                       0.0000000  0.0000000  0.0000000     0.5000000  0.5000000  0.5000000
                       0.0000000  0.0000000  0.0000000     0.5000000  0.5000000  0.5000000
                       0.0000000  0.0000000  0.0000000     0.5000000  0.5000000  0.5000000
                       0.0000000  0.0000000  0.0000000     0.5000000  0.5000000  0.5000000
                       0.0000000  0.0000000  0.0000000     0.5000000  0.5000000  0.5000000
                       0.0000000  0.0000000  0.0000000     0.5000000  0.5000000  0.5000000
                       0.0000000  0.0000000  0.0000000     0.5000000  0.5000000  0.5000000
                       0.0000000  0.0000000  0.0000000     0.5000000  0.5000000  0.5000000
                       0.0000000  0.0000000  0.0000000     0.5000000  0.5000000  0.5000000
                       0.0000000  0.0000000  0.0000000     0.5000000  0.5000000  0.5000000
                       0.0000000  0.0000000  0.0000000     0.5000000  0.5000000  0.5000000
                       0.0000000  0.0000000  0.0000000     0.5000000  0.5000000  0.5000000
                       0.0000000  0.0000000  0.0000000     0.5000000  0.5000000  0.5000000
                       0.0000000  0.0000000  0.0000000     0.5000000  0.5000000  0.5000000
                       0.0000000  0.0000000  0.0000000     0.5000000  0.5000000  0.5000000
                       0.0000000  0.0000000  0.0000000     0.5000000  0.5000000  0.5000000
                       0.0000000  0.0000000  0.0000000     0.5000000  0.5000000  0.5000000
                       0.0000000  0.0000000  0.0000000     0.5000000  0.5000000  0.5000000
                       0.0000000  0.0000000  0.0000000     0.5000000  0.5000000  0.5000000
                       0.0000000  0.0000000  0.0000000     0.5000000  0.5000000  0.5000000
                       0.0000000  0.0000000  0.0000000     0.5000000  0.5000000  0.5000000
                       0.0000000  0.0000000  0.0000000     0.5000000  0.5000000  0.5000000
                       0.0000000  0.0000000  0.0000000     0.5000000  0.5000000  0.5000000
                       0.0000000  0.0000000  0.0000000     0.5000000  0.5000000  0.5000000
                       0.0000000  0.0000000  0.0000000     0.5000000  0.5000000  0.5000000
                       0.0000000  0.0000000  0.0000000     0.5000000  0.5000000  0.5000000
                       0.0000000  0.0000000  0.0000000     0.5000000  0.5000000  0.5000000
                       0.0000000  0.0000000  0.0000000     0.5000000  0.5000000  0.5000000
                       0.0000000  0.0000000  0.0000000     0.5000000  0.5000000  0.5000000
                       0.0000000  0.0000000  0.0000000     0.5000000  0.5000000  0.5000000
                       0.0000000  0.0000000  0.0000000     0.5000000  0.5000000  0.5000000
                       0.0000000  0.0000000  0.0000000     0.5000000  0.5000000  0.5000000
                       0.0000000  0.0000000  0.0000000     0.5000000  0.5000000  0.5000000
           tolvrs      1.00000000E-10
           tsmear      2.25000000E-03 Hartree
            typat      1  1
         wfoptalg         114
              wtk        0.00000    0.00001    0.00001    0.00001    0.00001    0.00001
                         0.00001    0.00001    0.00001    0.00001    0.00001    0.00001
                         0.00001    0.00001    0.00001    0.00001    0.00001    0.00001
                         0.00001    0.00001    0.00001    0.00001    0.00001    0.00001
                         0.00001    0.00001    0.00001    0.00001    0.00001    0.00001
                         0.00001    0.00001    0.00001    0.00001    0.00001    0.00001
                         0.00001    0.00001    0.00001    0.00001    0.00001    0.00001
                         0.00001    0.00002    0.00004    0.00004    0.00004    0.00004
                         0.00004    0.00004
                       outvars : Printing only first  50 k-points.
           xangst      0.0000000000E+00  0.0000000000E+00  0.0000000000E+00
                       9.2265141946E-01  9.2265141946E-01  9.2265141946E-01
            xcart      0.0000000000E+00  0.0000000000E+00  0.0000000000E+00
                       1.7435584989E+00  1.7435584989E+00  1.7435584989E+00
             xred      0.0000000000E+00  0.0000000000E+00  0.0000000000E+00
                       5.0000000000E-01  5.0000000000E-01  5.0000000000E-01
            znucl        1.00000

================================================================================
  

================================================================================

 Suggested references for the acknowledgment of ABINIT usage.

 The users of ABINIT have little formal obligations with respect to the ABINIT group
 (those specified in the GNU General Public License, http://www.gnu.org/copyleft/gpl.txt).
 However, it is common practice in the scientific literature,
 to acknowledge the efforts of people that have made the research possible.
 In this spirit, please find below suggested citations of work written by ABINIT developers,
 corresponding to implementations inside of ABINIT that you have used in the present run.
 Note also that it will be of great value to readers of publications presenting these results,
 to read papers enabling them to understand the theoretical formalism and details
 of the ABINIT implementation.
 For information on why they are suggested, see also https://docs.abinit.org/theory/acknowledgments.
-
- [1] Large scale ab initio calculations based on three levels of parallelization
- F. Bottin, S. Leroux, A. Knyazev, G. Zerah, Comput. Mat. Science 42, 329, (2008).
- Comment: in case LOBPCG algorithm is used (wfoptalg=4/14/114).
- Strong suggestion to cite this paper in your publications.
- This paper is also available at http://www.arxiv.org/abs/0707.3405
- DOI and bibtex: see https://docs.abinit.org/theory/bibliography/#bottin2008
-
- [2] The Abinit project: Impact, environment and recent developments.
- Computer Phys. Comm. 248, 107042 (2020).
- X.Gonze, B. Amadon, G. Antonius, F.Arnardi, L.Baguet, J.-M.Beuken,
- J.Bieder, F.Bottin, J.Bouchet, E.Bousquet, N.Brouwer, F.Bruneval,
- G.Brunin, T.Cavignac, J.-B. Charraud, Wei Chen, M.Cote, S.Cottenier,
- J.Denier, G.Geneste, Ph.Ghosez, M.Giantomassi, Y.Gillet, O.Gingras,
- D.R.Hamann, G.Hautier, Xu He, N.Helbig, N.Holzwarth, Y.Jia, F.Jollet,
- W.Lafargue-Dit-Hauret, K.Lejaeghere, M.A.L.Marques, A.Martin, C.Martins,
- H.P.C. Miranda, F.Naccarato, K. Persson, G.Petretto, V.Planes, Y.Pouillon,
- S.Prokhorenko, F.Ricci, G.-M.Rignanese, A.H.Romero, M.M.Schmitt, M.Torrent,
- M.J.van Setten, B.Van Troeye, M.J.Verstraete, G.Zerah and J.W.Zwanzig
- Comment: the fifth generic paper describing the ABINIT project.
- Note that a version of this paper, that is not formatted for Computer Phys. Comm. 
- is available at https://www.abinit.org/sites/default/files/ABINIT20.pdf .
- The licence allows the authors to put it on the Web.
- DOI and bibtex: see https://docs.abinit.org/theory/bibliography/#gonze2020
-
- [3] Optimized norm-conserving Vanderbilt pseudopotentials.
- D.R. Hamann, Phys. Rev. B 88, 085117 (2013).
- Comment: Some pseudopotential generated using the ONCVPSP code were used.
- DOI and bibtex: see https://docs.abinit.org/theory/bibliography/#hamann2013
-
- [4] ABINIT: Overview, and focus on selected capabilities
- J. Chem. Phys. 152, 124102 (2020).
- A. Romero, D.C. Allan, B. Amadon, G. Antonius, T. Applencourt, L.Baguet,
- J.Bieder, F.Bottin, J.Bouchet, E.Bousquet, F.Bruneval,
- G.Brunin, D.Caliste, M.Cote,
- J.Denier, C. Dreyer, Ph.Ghosez, M.Giantomassi, Y.Gillet, O.Gingras,
- D.R.Hamann, G.Hautier, F.Jollet, G. Jomard,
- A.Martin, 
- H.P.C. Miranda, F.Naccarato, G.Petretto, N.A. Pike, V.Planes,
- S.Prokhorenko, T. Rangel, F.Ricci, G.-M.Rignanese, M.Royo, M.Stengel, M.Torrent,
- M.J.van Setten, B.Van Troeye, M.J.Verstraete, J.Wiktor, J.W.Zwanziger, and X.Gonze.
- Comment: a global overview of ABINIT, with focus on selected capabilities .
- Note that a version of this paper, that is not formatted for J. Chem. Phys 
- is available at https://www.abinit.org/sites/default/files/ABINIT20_JPC.pdf .
- The licence allows the authors to put it on the Web.
- DOI and bibtex: see https://docs.abinit.org/theory/bibliography/#romero2020
-
- [5] Recent developments in the ABINIT software package.
- Computer Phys. Comm. 205, 106 (2016).
- X.Gonze, F.Jollet, F.Abreu Araujo, D.Adams, B.Amadon, T.Applencourt,
- C.Audouze, J.-M.Beuken, J.Bieder, A.Bokhanchuk, E.Bousquet, F.Bruneval
- D.Caliste, M.Cote, F.Dahm, F.Da Pieve, M.Delaveau, M.Di Gennaro,
- B.Dorado, C.Espejo, G.Geneste, L.Genovese, A.Gerossier, M.Giantomassi,
- Y.Gillet, D.R.Hamann, L.He, G.Jomard, J.Laflamme Janssen, S.Le Roux,
- A.Levitt, A.Lherbier, F.Liu, I.Lukacevic, A.Martin, C.Martins,
- M.J.T.Oliveira, S.Ponce, Y.Pouillon, T.Rangel, G.-M.Rignanese,
- A.H.Romero, B.Rousseau, O.Rubel, A.A.Shukri, M.Stankovski, M.Torrent,
- M.J.Van Setten, B.Van Troeye, M.J.Verstraete, D.Waroquier, J.Wiktor,
- B.Xu, A.Zhou, J.W.Zwanziger.
- Comment: the fourth generic paper describing the ABINIT project.
- Note that a version of this paper, that is not formatted for Computer Phys. Comm. 
- is available at https://www.abinit.org/sites/default/files/ABINIT16.pdf .
- The licence allows the authors to put it on the Web.
- DOI and bibtex: see https://docs.abinit.org/theory/bibliography/#gonze2016
 Proc.   0 individual time (sec): cpu=         32.3  wall=         32.4

 Calculation completed.
.Delivered   0 WARNINGs and   2 COMMENTs to log file.

--- !FinalSummary
program: abinit
version: 9.7.3
start_datetime: Wed Apr 06 02:41:01 2022
end_datetime: Wed Apr 06 02:41:33 2022
overall_cpu_time:        1033.2
overall_wall_time:        1033.6
exit_requested_by_user: no 
timelimit: 12:00:00 [hours]
pseudos: 
    H   : 20698c48a21fe3532638b4d685fd1c8b
usepaw: 0
mpi_procs: 32
omp_threads: 1
num_warnings: 0
num_comments: 2
...
